unknown system                          
           1
    14.500001    0.000000    0.000000
     0.000000   14.500001    0.000000
     0.000000    0.000000   14.500000
   Ti   Cu
 249   1
Direct configuration=     1
  -0.00140878  0.00602928  0.02062838
  -0.07104551 -0.01393543  0.20694270
  -0.05212304 -0.01692118  0.37629760
  -0.00672263  0.02790359  0.61739920
  -0.03151741 -0.07509471  0.76784173
   0.03596042  0.15098271 -0.00958376
   0.07270189  0.23975876  0.16610496
  -0.01863605  0.21649805  0.38209887
   0.03186808  0.15863031  0.49973019
   0.01053665  0.24089065  0.76786418
  -0.00255081  0.49360730  0.07440919
  -0.00646625  0.48035960  0.22765367
   0.01080354  0.41444604  0.41496678
   0.06538615  0.41533687  0.59294369
   0.01977994  0.48258145  0.75633196
   0.09728151  0.55676188  0.12009915
   0.13261593  0.66403455  0.18535769
   0.06945248  0.72120414  0.35935144
   0.05584662  0.58990822  0.57417372
  -0.00397871  0.58517461  0.74583590
   0.16580425  0.82858785  0.04123385
  -0.04113163  0.80487937  0.18515346
  -0.01058983  0.80837996  0.42038102
   0.01774335  0.77865716  0.64212592
   0.03966777  0.83698925  0.89568471
   0.29190438 -0.04845364  0.11536905
   0.23254143 -0.01129503  0.17487358
   0.18831620  0.00454460  0.38015211
   0.20868859  0.05348254  0.70074909
   0.25370078 -0.05729611  0.84788905
   0.23498950  0.19595738 -0.00584711
   0.22207814  0.25789379  0.18371957
   0.20657909  0.18073874  0.38507503
   0.17882776  0.15033116  0.58369148
   0.21613622  0.21106735  0.83108632
   0.20593872  0.42883172  0.07760745
   0.27589441  0.42411606  0.22249876
   0.30542162  0.40041976  0.34340088
   0.19595129  0.41496771  0.57633597
   0.21542196  0.39887306  0.81744386
   0.32233693  0.60883093  0.02612414
   0.19448838  0.60931253  0.22208719
   0.15524740  0.65029840  0.38774243
   0.17979681  0.61208566  0.62649625
   0.25419554  0.58676217  0.75802645
   0.23259931  0.77281642  0.01424857
   0.17825219  0.79383683  0.22092885
   0.16074926  0.83066334  0.46539557
   0.21862939  0.78670244  0.65709889
   0.21707393  0.77564436  0.81965121
   0.42329950  0.00716502  0.11441616
   0.45679366  0.06146137  0.25070018
   0.36130665  0.03601256  0.35775401
   0.40776456  0.07292277  0.67553025
   0.37399173 -0.00629564  0.93383501
   0.51307824  0.17483496  0.07199329
   0.39841122  0.21034996  0.22371454
   0.38158710  0.24307637  0.45583325
   0.45354313  0.22699482  0.56950775
   0.41499357  0.23103281  0.88031026
   0.39221422  0.45856957 -0.01822500
   0.46645903  0.40782431  0.20303678
   0.42969262  0.41294959  0.44184839
   0.37778843  0.40203896  0.60622809
   0.41157611  0.46747351  0.80419182
   0.50038755  0.60153449  0.02975358
   0.37034279  0.63453817  0.33950579
   0.45170182  0.58505463  0.31961415
   0.35587899  0.62777024  0.57036069
   0.41715754  0.60247757  0.84148807
   0.57283409  0.73966349  0.01612668
   0.51899537  0.73087935  0.17121096
   0.40884052  0.81176583  0.34627800
   0.39953926  0.81779323  0.82576638
   0.56681610  0.04026162  0.02362477
   0.70185353 -0.01936121  0.29333815
   0.65338294  0.00903057  0.47353124
   0.57106562  0.00150855  0.60582689
   0.57766945 -0.01572036  0.80591632
   0.64015547  0.23238025 -0.00485031
   0.59912363  0.19849952  0.21679334
   0.64674088  0.25198074  0.43458911
   0.61536676  0.26473081  0.61110117
   0.63480225  0.26146652  0.80550716
   0.56542422  0.41150767 -0.00659133
   0.65981347  0.37739258  0.13845349
   0.61052392  0.46905051  0.43691198
   0.61997624  0.45557143  0.62639983
   0.70188053  0.41830209  0.82593127
   0.64990186  0.64209707  0.03359896
   0.64055399  0.60954155  0.19065416
   0.58546611  0.59127566  0.55153924
   0.60023093  0.59297008  0.74187366
   0.71060817  0.62882241  0.79651345
   0.62914253  0.88663867  0.09895970
   0.59509876  0.89134077  0.29760668
   0.55463001  0.84519255  0.47458562
   0.55818756  0.79642563  0.61080989
   0.57889058  0.79080094  0.79301716
   0.82529378  0.08054200 -0.01642340
   0.82499726  0.09106951  0.21881222
   0.82145702 -0.00478059  0.43588096
   0.78767297  0.07058704  0.60107567
   0.78316235 -0.00646490  0.80000791
   0.82790238  0.19742870 -0.09047025
   0.78103266  0.23346724  0.24836746
   0.82691718  0.20148302  0.40794437
   0.79507653  0.20568220  0.60926455
   0.93133164  0.32819851  0.74410802
   0.87288548  0.42434841  0.00572238
   0.80141657  0.44876827  0.21541087
   0.79218351  0.39256957  0.41122467
   0.80846327  0.39982558  0.65094143
   0.89757936  0.38274866  0.81980382
   0.97805391  0.56854592  0.00607467
   0.88378311  0.64981576  0.15550228
   0.77809817  0.55353023  0.45914954
   0.83599293  0.64583421  0.57221000
   0.79799990  0.66363726  0.81074197
   0.81289985  0.86890277  0.00870051
   0.76733697  0.80852660  0.29838101
   0.82910799  0.69363531  0.42411950
   0.81334931  0.79792068  0.57207621
   0.75418472  0.80471763  0.78191707
   0.24796542  0.07264882  0.11595837
   0.02881156  0.10231683  0.17663027
   0.05919684  0.01028936  0.50744796
   0.10516203  0.10738296  0.70958761
   0.15274324  0.06059710  0.87456128
   0.11960643  0.29077768  0.01539659
   0.13918906  0.30049485  0.28280869
   0.09724920  0.29748162  0.48950146
   0.23971165  0.28235809  0.67701627
   0.10655323  0.46445354  0.89895017
   0.08224724  0.40689772  0.18169125
   0.13413171  0.51286541  0.28856100
   0.19836464  0.53394480  0.44998079
   0.11046210  0.59822145  0.80903206
   0.16903708  0.64125063  0.93752063
   0.09108582  0.78799661  0.10339504
   0.05422378  0.85331681  0.32808657
   0.11332094  0.70363923  0.50988948
   0.09716701  0.67641691  0.69144518
   0.02620454  0.73666841  0.89698437
   0.08576287  0.88697835  0.11802016
   0.06914040  0.98348620  0.26143765
   0.13320363  0.90984285  0.66941805
   0.09012708  0.90989757  0.79831690
   0.10753977  0.96743981  0.97714039
   0.28738494  0.10922859  0.13847181
   0.20668622  0.09942729  0.28757501
   0.31169747  0.12533087  0.55082457
   0.32584547  0.09310681  0.83495385
   0.39377214  0.14378564  0.96613224
   0.37027785  0.30306376  0.09883626
   0.30867242  0.28007371  0.31365727
   0.24611840  0.28591070  0.53659295
   0.31790217  0.32677839  0.76363996
   0.30816333  0.33932343  0.92535004
   0.31364262  0.52669830  0.17276242
   0.25981716  0.63827909  0.33359458
   0.30871760  0.64488692  0.50767864
   0.29930788  0.46744317  0.68144068
   0.28571348  0.57494305  0.88032649
   0.35213055  0.69340548  0.14273445
   0.36081760  0.72375098  0.30824280
   0.33182248  0.74266168  0.54566721
   0.30954036  0.77168269  0.70842226
   0.30079612  0.69169570  0.90084808
   0.37006216  0.91602907  0.29771435
   0.31967666  0.91154524  0.31764016
   0.24504559  0.93259541  0.55647022
   0.32109814  0.92988937  0.66654341
   0.34645198  0.86737834  0.99700298
   0.60957142  0.08707368  0.29693355
   0.50271780  0.12695630  0.36993046
   0.51333969  0.08420407  0.49818034
   0.55284949  0.12884343  0.68392029
   0.49377045  0.15111665  0.90935953
   0.56925125  0.35761980  0.10012807
   0.55256039  0.32648011  0.30481076
   0.49574396  0.29312475  0.49310057
   0.50396969  0.32510064  0.70690385
   0.52698299  0.30758092  0.89182306
   0.48830616  0.49712694  0.17002258
   0.51363313  0.53051013  0.33796498
   0.44615014  0.52832000  0.50315246
   0.48911200  0.49364769  0.66778243
   0.53613357  0.53484698  0.89741647
   0.73454179  0.75089932  0.20009406
   0.55318933  0.70971282  0.32233042
   0.48639867  0.68993572  0.50429368
   0.48126654  0.70104062  0.71528997
   0.59319662  0.73133202  0.91047761
   0.50868719  0.88775965  0.10655911
   0.52642376  0.98766542  0.39876506
   0.40024161  0.92887017  0.49696677
   0.48078585  0.93469732  0.72681553
   0.50159665  0.88883763  0.94279449
   0.72249370  0.09120241  0.15024012
   0.74678998  0.08344335  0.37447866
   0.68259982  0.12627046  0.55386334
   0.73534992  0.11848856  0.75146621
   0.67906847  0.11089438  0.91018389
   0.75872411  0.26444776  0.10560987
   0.67044334  0.38886587  0.26226202
   0.73303023  0.36443891  0.51381898
   0.71799932  0.38082126  0.74054127
   0.75070607  0.30771828  0.93282108
   0.70880224  0.50433552  0.06652653
   0.68005383  0.48696027  0.31449820
   0.75944444  0.55075109  0.60958394
   0.77559526  0.49896838  0.74319314
   0.81936826  0.58742262  0.94066624
   0.74836036  0.77074545  0.06433779
   0.86925397  0.66116509  0.31283094
   0.67545775  0.74137961  0.48781931
   0.70214670  0.69974347  0.64605333
   0.72191569  0.88540613  0.93308574
   0.72127968  0.99351057  0.10460367
   0.70383295  0.81647399  0.34221602
   0.70226613  0.89713688  0.56886240
   0.66847665  0.92940624  0.72633002
   0.66450249  0.88704940  0.91133121
   0.97846948  0.16664442  0.12463408
   0.92143200  0.19024991  0.27154556
   0.92010249  0.12196265  0.49453283
   0.99257952  0.19000330  0.66869650
   0.96248888  0.09797506  0.85288994
   0.89558696  0.28866206 -0.06899244
   0.90288076  0.34074261  0.29904961
   0.89537829  0.31326268  0.51877986
   1.09582824  0.27656499  0.72942091
   0.89892354  0.30151694  0.99980142
   0.89462991  0.42594870  0.13508486
   0.89293475  0.50000500  0.33113319
   0.90744916  0.49591505  0.50910753
   0.90236169  0.51473243  0.78954006
   0.99835831  0.47952357  0.90743702
   0.91047979  0.73246014  0.09082544
   0.96248273  0.67771704  0.23618490
   0.98680853  0.61435217  0.44334020
   0.89280609  0.73182090  0.70125273
   0.85980287  0.80405546  0.89246159
   0.80782805  0.87398699  0.14565443
   0.87694238  0.89898498  0.50286529
   0.87769965  0.90730691  0.62827530
   0.91129732  0.94056774  0.68916387
   0.89663291  0.93650400  0.87742837
   0.43084021  0.82643011  0.63082910
