unknown system                          
           1
    14.500001    0.000000    0.000000
     0.000000   14.500001    0.000000
     0.000000    0.000000   14.500000
   Ti   Cu
 249   1
Direct configuration=     1
  -0.02664374  0.00602928  0.03255554
  -0.10612548 -0.01400332  0.19411235
  -0.10322800  0.03019051  0.34552972
   0.02918762  0.02790359  0.62861597
  -0.03152882 -0.11260570  0.74282015
   0.03525684  0.15101445 -0.02914729
   0.07270182  0.23996717  0.11700458
   0.01075370  0.21649801  0.34171307
   0.05653766  0.10288748  0.41107768
   0.03487250  0.24653443  0.81102774
  -0.01204962  0.49360729  0.07440913
  -0.06431770  0.48035959  0.22765366
   0.01080354  0.41800517  0.41494827
   0.06538652  0.41533624  0.56748400
   0.04796811  0.48258146  0.72741734
   0.09888348  0.55676188  0.12009915
   0.13261593  0.71023235  0.18535745
   0.06945247  0.72120399  0.35935170
   0.05588884  0.55710917  0.49856565
  -0.03719339  0.58517461  0.64990957
   0.16580321  0.81593987 -0.00811161
  -0.06996985  0.80486116  0.18515346
  -0.05548779  0.78752747  0.43278716
   0.01774334  0.77867221  0.64212591
   0.03966775  0.83698920  0.89568477
   0.29190427 -0.10990705  0.11537941
   0.19634306 -0.01181770  0.17487314
   0.18821765 -0.03484381  0.32693617
   0.20868858  0.05348417  0.70074909
   0.25370068 -0.09487198  0.84788901
   0.23498930  0.20274653 -0.00584845
   0.22206409  0.25789379  0.16871460
   0.24307260  0.14132645  0.42483704
   0.12925716  0.10645746  0.55896231
   0.21613621  0.21106970  0.83108632
   0.16770445  0.42883142  0.07760745
   0.27589445  0.42052276  0.22218368
   0.30616956  0.40041571  0.39692498
   0.18346806  0.37170437  0.51197428
   0.17911971  0.39888624  0.80964424
   0.32233692  0.56542587  0.05545272
   0.23243852  0.59361820  0.22208719
   0.13039583  0.64782147  0.36044719
   0.15169877  0.59088931  0.62648744
   0.29331512  0.55093080  0.70482471
   0.23259941  0.71149233  0.07006748
   0.16829665  0.81637732  0.25509847
   0.14837994  0.83066334  0.46539557
   0.20000789  0.74752035  0.62549118
   0.21707388  0.77564437  0.81932548
   0.42329943  0.00716502  0.11441610
   0.45679374  0.06146133  0.25070008
   0.31838304  0.08256900  0.31355128
   0.40776456  0.07292277  0.67553013
   0.40620848 -0.00870448  0.93383486
   0.51307821  0.15160790  0.07199199
   0.37263367  0.21034996  0.22371454
   0.36835958  0.24307619  0.45583462
   0.45354313  0.22699482  0.61795942
   0.41167554  0.23102333  0.88031021
   0.34496513  0.45965885 -0.04277036
   0.46645904  0.40773163  0.22453759
   0.46093534  0.39393401  0.45093210
   0.34916739  0.36855016  0.60622809
   0.41047880  0.47723493  0.80898566
   0.50038721  0.56780605  0.04271663
   0.33419793  0.63453293  0.34643797
   0.47855814  0.59632250  0.24380744
   0.31597201  0.66161119  0.57786764
   0.44674820  0.63547338  0.84148802
   0.57283399  0.71063612  0.00836875
   0.55996079  0.69268390  0.14803462
   0.43411115  0.81176578  0.34627801
   0.39953838  0.79279635  0.84429102
   0.55572950  0.01402361  0.02362471
   0.74116592 -0.04281883  0.29333813
   0.65338283  0.00903052  0.47352854
   0.57030079 -0.01627633  0.60582689
   0.56232378  0.02572363  0.80556464
   0.64015537  0.23238025 -0.01795482
   0.59102277  0.21141435  0.21679334
   0.64674088  0.25198074  0.39820902
   0.61536676  0.26485512  0.61110117
   0.63480225  0.26146642  0.79497728
   0.50188501  0.41151152 -0.00659133
   0.65981347  0.33428160  0.09447871
   0.58437379  0.46905035  0.46673091
   0.61997772  0.45557105  0.62639972
   0.70186648  0.39615340  0.82601495
   0.64992486  0.64209706  0.03359892
   0.64987221  0.58209978  0.20792113
   0.53771406  0.56946773  0.55153924
   0.57775505  0.55841905  0.74187362
   0.71060813  0.64786670  0.82271336
   0.60729942  0.88710960  0.09895959
   0.55654301  0.89134074  0.29760667
   0.54805278  0.84519168  0.47458562
   0.59493786  0.75498122  0.58813955
   0.57887117  0.74644403  0.76222663
   0.82529378  0.08053849 -0.02518335
   0.82499678  0.09106951  0.21887485
   0.76170674 -0.06909051  0.43588096
   0.78763227  0.07058703  0.60102244
   0.78312528 -0.00646919  0.78669564
   0.82790212  0.22820364 -0.13794669
   0.74883311  0.23911076  0.24836746
   0.82691718  0.20148302  0.40794368
   0.78304671  0.20568132  0.60793376
   0.93133938  0.32819639  0.70320348
   0.87288541  0.42446210 -0.01605149
   0.75932593  0.44876315  0.21541007
   0.76335747  0.36768673  0.37503648
   0.84878200  0.39982538  0.61076720
   0.89757931  0.35547971  0.81981069
   0.97805391  0.57029222  0.00846290
   0.88378309  0.64981574  0.10211755
   0.74820062  0.51818841  0.49799352
   0.86936619  0.64583421  0.57148620
   0.80662858  0.66363724  0.81074188
   0.87118243  0.86890277  0.00846019
   0.80124446  0.80851798  0.29838098
   0.78383389  0.64916417  0.42411950
   0.81334883  0.76691941  0.53953235
   0.75412758  0.80461005  0.72843456
   0.24796537  0.03443737  0.06821408
   0.09422203  0.09406566  0.09119723
   0.01857741 -0.05769106  0.50744473
   0.07678955  0.10872798  0.74275330
   0.15274319  0.06059805  0.87456886
   0.08613077  0.29406569 -0.02674418
   0.13923123  0.30003053  0.32912641
   0.06174337  0.25499232  0.47311452
   0.24007823  0.23620150  0.70224916
   0.11915787  0.50559619  0.94603109
   0.04875316  0.36132905  0.23415703
   0.13413172  0.51283319  0.24953359
   0.20179490  0.51345400  0.39842561
   0.06945591  0.59822041  0.80911559
   0.13224091  0.67168056  0.93752063
   0.05643060  0.78799640  0.07077775
   0.03056227  0.90189500  0.33097101
   0.07091680  0.70363923  0.53813521
   0.05565166  0.71134492  0.72501278
  -0.03689552  0.72070727  0.89095181
   0.04891021  0.88697835  0.12361027
   0.02608943  1.02937966  0.23261560
   0.13320359  0.90984265  0.66941805
   0.12025651  0.90993332  0.79831690
   0.10753931  0.96743981  0.97714035
   0.28685158  0.13039230  0.13847067
   0.15613898  0.14148230  0.28718692
   0.31169531  0.09538022  0.55082458
   0.32584530  0.09305620  0.83495382
   0.39377207  0.14378550  0.97041717
   0.37027785  0.32370502  0.09883516
   0.30867242  0.27644706  0.31365727
   0.22048073  0.22094446  0.53659297
   0.31790217  0.32684518  0.76363996
   0.24492315  0.33946939  0.92537766
   0.35813573  0.52669830  0.17387351
   0.23072585  0.66437052  0.40488841
   0.26975574  0.64488115  0.50767864
   0.25599412  0.43013732  0.66281426
   0.24517436  0.57501274  0.83402625
   0.35259905  0.69340548  0.14246708
   0.36081748  0.75672052  0.29388418
   0.33182248  0.79568798  0.54566713
   0.35626439  0.77168269  0.70842209
   0.31805492  0.69169570  0.92716442
   0.37006216  0.91604728  0.29771433
   0.29620901  0.91056178  0.35017940
   0.20182347  0.96249920  0.55647022
   0.32110420  0.92988934  0.61655945
   0.34645198  0.86737269  0.99883185
   0.60957138  0.08707254  0.29693354
   0.45531226  0.12908226  0.36993043
   0.47836679  0.08420533  0.49817968
   0.55285583  0.12884341  0.68392025
   0.49485450  0.15111665  0.91011098
   0.56925094  0.35761976  0.09998319
   0.55256038  0.32648011  0.31763486
   0.52173929  0.25621436  0.49098120
   0.47576097  0.32313512  0.73915376
   0.52698204  0.30758092  0.91600564
   0.52601199  0.45384521  0.17075251
   0.51335504  0.53050881  0.37069899
   0.39409227  0.52831952  0.50315249
   0.47780551  0.46988627  0.66778293
   0.53624611  0.53476523  0.89615363
   0.73453866  0.71416186  0.20009406
   0.55394939  0.70971241  0.32930979
   0.46122804  0.68982587  0.46617891
   0.47224397  0.64040441  0.69707021
   0.59515301  0.73131020  0.91014938
   0.49000670  0.85390262  0.11498036
   0.52642355  0.98766539  0.39876450
   0.37337163  0.95976604  0.46750247
   0.47973073  0.93469732  0.72681552
   0.50627496  0.88388623  0.94521630
   0.68160367  0.12288726  0.15024005
   0.74678968  0.10185751  0.37464338
   0.64728002  0.12626923  0.55386283
   0.73534992  0.11848856  0.75146621
   0.67757602  0.09381432  0.90436028
   0.79214660  0.21601658  0.09389003
   0.62538241  0.38886587  0.26163508
   0.73330811  0.36443897  0.51491713
   0.71800816  0.38082118  0.74054017
   0.75070605  0.30955660  0.93307697
   0.70880174  0.46763064  0.02709860
   0.67568164  0.52497340  0.35168007
   0.75944444  0.55075877  0.65142493
   0.77559747  0.49867450  0.81078726
   0.81936826  0.58742261  0.94066623
   0.74520495  0.77074458  0.01604533
   0.86925400  0.66118295  0.30225727
   0.64508991  0.74137961  0.44049653
   0.70214669  0.65550609  0.61620077
   0.72287234  0.88880001  0.93308574
   0.72127967  0.99357756  0.07559347
   0.66229883  0.78553330  0.28455713
   0.69919719  0.88540348  0.56886241
   0.66710988  0.92940601  0.72633002
   0.64909510  0.91454200  0.91126164
   0.97846942  0.14307571  0.12463407
   0.92143144  0.19024981  0.24356096
   0.92010239  0.09443448  0.50183977
   0.99258105  0.18999244  0.62287989
   0.96248877  0.06308011  0.85285056
   0.85888662  0.23293412 -0.18418526
   0.89280449  0.34074087  0.31893109
   0.89539157  0.28838450  0.51877099
   1.09642745  0.27656499  0.68056545
   0.91612364  0.30151694  1.00004364
   0.86901351  0.37503030  0.13508529
   0.86530913  0.49549610  0.33113319
   0.90744935  0.47041807  0.50910595
   0.90236169  0.50353665  0.78954003
   0.99835172  0.41235354  0.90743702
   0.90346845  0.73246014  0.04765425
   0.96248257  0.65057607  0.18337801
   0.98680853  0.59051658  0.36564243
   0.89263351  0.73182090  0.70063851
   0.78709372  0.80405542  0.83909750
   0.77020747  0.87398699  0.14565214
   0.87693549  0.92021313  0.50287267
   0.87095444  0.88016830  0.62831154
   0.91129739  0.99835133  0.68897415
   0.86527856  0.93650400  0.83744144
   0.43084021  0.82643011  0.63082910
