(Al)256  (P1) ~ (Pearson                
           1
    16.553834   -0.000013    0.000014
     0.000000   16.553834   -0.000012
     0.000000    0.000000   16.553834
   Ti   Cu
 243   7
Direct configuration=     1
   0.11257714 -0.02790790 -0.22653217
   0.16114648  0.00249383  0.11356812
   0.00487007  0.03420171  0.23209706
   0.18352505  0.27585406  0.21837946
   0.41343079  0.20340754  0.79481758
   0.06788013  0.22026887  0.85528857
   0.22608001  0.28193558  0.74066861
   0.28851092  0.60999189  0.72429390
   1.12898153 -0.04247113  0.50810493
   0.18512576  0.19001079  1.06270933
   0.05082252  0.29273734  0.16404673
   0.23430909  0.72171637  0.03854806
   0.08649708  0.13512797  0.20073160
   0.06952928  0.26621978  0.37947231
   0.13675073  0.34563549  0.83089740
   0.36540512  0.26278551  0.20054033
  -0.19936026  0.61871087  0.73363268
   0.25412910  0.45451679  0.78323211
  -0.00053909  0.85691125  0.82054771
  -0.09077781  0.22554559 -0.13023123
   0.08604193  0.77577303  0.03917932
   0.05448208  0.96292634 -0.07569468
   0.10296952  0.62222987  0.05876599
   0.10038593  0.44209356  0.31241980
   0.12504066  0.43144775  0.17082656
   0.06663914  0.56285577  0.56359328
   0.03037083  0.68898939  0.91964604
   0.39234926  1.11887855  0.96261337
   0.02551034  0.89957818  0.65191565
   0.52213609  0.72315868  1.18559254
   0.18179669  0.88212585  0.03822000
   0.26679566  0.84265041  0.32016063
   0.09825648  0.88383583  0.17593694
   0.19548395  1.15105924  0.35990135
   0.48024264  0.86102448  0.42353818
   0.22838587  1.06137271  0.22624430
   0.38962247  0.71862669  0.72086567
   0.13515595  1.25884636  0.60439683
   0.11704276  1.16973384  0.71986454
   0.26189888  1.07035291  0.80840736
   0.38345424 -0.15070932 -0.02339843
   0.52327843  0.48695105  0.15188781
   0.18111804  0.04416721 -0.06413801
   0.35493484  0.13231960  0.30063477
  -0.08117419 -0.12902621  0.27305965
   0.04368226  0.06082359  0.38982759
  -0.23693856  1.37375693  0.81271590
  -0.23167389  0.28869144  1.13581196
  -0.24272937  1.12298953  0.70791685
   0.41671855  0.03462075  1.15610493
   0.61381375  0.29714557 -0.06865671
   0.66009176  0.41829974  0.06068961
   0.64244040  0.28933142  0.31194521
   0.54802154  0.67312803  0.37082499
   0.49748984  0.34552510  0.15834601
   0.25090474  0.25833778  0.47679078
   0.01608371  0.08669093  0.88681668
   0.23839512  0.23326167  0.90718192
   0.25665650  0.51663427  0.99821057
   0.52255965  0.41449932  1.00971417
   0.20275238  0.35441051  0.02725607
   0.48908751  0.12565364  0.61040448
   0.28162954  0.66945481  0.28849015
   0.37420992  0.29488810  0.36352429
   0.54291064  0.58733501  0.93459463
   0.20985779  0.54772838  0.44688569
   0.08555762  0.40718436  0.66232541
   0.10656108  0.52453588  0.82707585
   0.57714862  0.43038041  0.60657159
   0.27193770  0.37225475 -0.08588002
   0.41174819  0.55230995  0.04219872
   0.26718744  0.49113384  0.29822012
   0.40658524  0.74029403  0.29780650
   0.19070319  0.66045940  0.53018858
   0.39076031  0.59220413  0.41649174
   0.21156753  0.77511313  0.76418977
   0.34908399  0.58512181  0.56159302
   0.14098049  0.81080486  0.87864281
   0.29948107  1.00920900  0.07217240
   0.56112183  1.09738588  0.05766415
   0.07022384  0.51201056 -0.00601274
   0.59640353  1.00317690  0.12852187
   0.21258588  0.57150845  0.13704374
   0.58228605  0.83484162  0.31516056
   0.39739090  0.82295965  0.60949980
   0.65507970  0.69964584  0.94305434
   0.50056030  0.60321222  0.66402143
   0.51476590  0.78891402  1.00221550
   0.51307470  0.73572357  0.85537403
   0.00398564  0.30237567  0.74627006
   0.26558410  0.04281167  0.41309893
   0.36421018  0.17486775  0.48503063
   0.01161535  0.88195286  0.40428010
   0.40831781  0.35781770  0.76575609
   0.33031070  1.18080030  0.66129846
   0.55317294 -0.17936853  0.69506591
   0.76920731  0.40115331 -0.02012831
   0.91429655  0.36456671  0.26346445
   0.34675068 -0.01568976  0.29783076
   0.76914837  0.35844537  0.53474603
   0.46720011  0.04240842  0.48930457
   0.36155074  0.04155584  0.64829239
   0.24105415  0.48150683  0.61499481
  -0.19716113  0.03645371  0.82957881
   0.05834070  0.35836662  1.01157497
   0.97438271  0.03434801  0.10159484
   0.38343593  0.44750530 -0.10453325
   0.37651931  0.43758948  0.28782055
   0.33260497  0.25272465  0.03221759
   0.44659414  0.39679296  0.48770768
   0.39737780  0.48110939  0.67603155
   0.65800565  0.67454935  0.59704630
   0.61943889  0.35268468  0.73898041
   0.59857718  0.61958909  1.07907930
   0.49213870  0.28363540  0.66541334
   0.77949795  0.43977839  1.40297669
   0.79257080  0.59317457  0.31255245
   0.87890642  0.48602010  0.53312468
   0.51963884  0.39173844  0.34096259
   0.70382979  0.50238449  0.53548298
   0.53666039  0.56643902  0.51911137
   0.48437242  0.71279282  0.50868417
   0.36700943  0.59529452  0.84834204
   0.66698623  0.40927421  1.25662546
   0.64763185  0.80967725  0.06618844
   0.74011892  0.65948382  0.12269607
   0.62292823  0.94686160  0.45745197
   0.35181310  0.56053321  0.18020368
   0.50168616  0.94539683  0.58443191
   0.62257850  0.51625392  0.39559381
   0.47763667  1.05354789  0.75441125
   0.91084710  0.74682861  0.67774762
   0.93910456  0.96072586  0.76260716
   0.48707771  0.11454378  0.89761819
   0.55705992  0.90086711 -0.10781000
   0.49726333 -0.01346468  0.32187901
   0.34851614 -0.29443902  0.14380059
   0.49732031  0.11841530  0.20151379
   0.50385515  1.21408930  0.33749598
   0.18387350  0.02950228  0.66206256
   0.60534557  0.14468539  0.76802605
   0.43699274 -0.14117159  0.78934892
   0.64456672  1.07873875  0.55879582
   0.47092818 -0.04714690  0.02632993
   0.30583897 -0.13748950  0.14657842
   0.89748932  0.19973255  0.55679689
   0.76371331  0.06606921  0.34728758
   0.67152098 -0.12756399  0.19383096
   0.70534830  0.20823616  0.45963711
   0.72388651  0.25375154  0.80689836
   0.38205012  0.40196816  1.07376591
  -0.08818371  0.13114981  0.71633391
   0.62349782 -0.04538410  0.97082115
   0.89841524  0.14626649  0.39013354
   0.68955194  0.67631280  0.41883381
   0.61871893  0.38737585  0.46741104
   0.91204712  0.30025929  0.43717737
   0.34052005  0.34629032  0.61863722
   0.51850168  0.46249677  0.81035166
   0.63080816  0.47821007  0.89110326
   0.66158469  0.50519338  0.70014358
   0.77860711  0.78474584  0.61972033
   0.97645942  0.31659775  1.60406192
   0.65429010  0.53062294  0.23642070
   0.91051612  0.55191042  0.39316770
   1.04350907  0.70561819  0.15876776
   1.13797891  0.38126210  0.48681707
   0.93269549  0.61729180  0.64279478
   0.84739137  0.76542266  0.40513658
   1.20360005  0.84761180  0.48905323
   0.97107040  0.68781453  0.48824787
   0.97249751  0.57334646  0.83236642
   0.67342070  0.61685201  0.78662800
   0.89373008  0.92315619  0.94794696
   0.83747894  0.86673471 -0.21323257
   0.45945809  0.85540743  0.16629800
   0.75124269  0.90388578  0.32254472
   0.88605311  0.95818752  0.40489469
   0.67602913  0.69057525  0.26288682
   0.76417928  1.05870027  0.49466330
   0.72138563  0.76029411  0.79437502
   1.30933293  0.92671900  0.74491753
   0.80451360  0.95007892  0.64582507
   0.74285697  0.83808640  0.90395374
   0.76597052  1.22932745 -0.02906009
   0.68577881  0.98066003 -0.18471928
   0.61981706 -0.20601825  0.48098199
   0.79575418  0.26632446  0.30565858
   0.64069878  0.25177487  0.60966167
   0.81430814  0.26966144  0.68579177
   0.59369374  0.13673808  0.42651861
   0.47587730  0.22710027  1.04244768
   0.62756141  1.25077710  1.13117261
   0.50265111 -0.42558986  0.27043594
   0.92697567  0.15565532  0.25063562
   0.04370764  0.19694430  0.01648555
   0.74273314  0.13411938  0.10810805
  -0.09476284  0.21172390  0.09534351
   0.80836257  0.65312985  0.50655412
  -0.20720256  0.45721529  0.67583883
   0.47752254  0.33799373  0.90150837
  -0.03056540  0.42364264  0.88405477
   0.94025071  0.49109602  1.08731919
  -0.00370424  0.52912209  1.21625404
  -0.01809129  0.41584116  0.45454311
   0.27393762  0.40657498  0.16720272
   0.95257035  0.47473536  0.69685303
   0.11389962  0.61345542  0.27083292
   0.50795106  0.24731180  0.50893145
   0.20563520  0.62463332  0.88961955
   1.06867899  0.16734893  0.48457851
   0.04791710  0.70827932  0.77493514
   0.92511472  0.54238002  0.97197444
  -0.13179731  0.67716963  0.84599400
  -0.09732781  0.65547474  0.15796737
  -0.03443223  0.69650167  0.31847500
   1.16380316  0.76550288  0.21123396
   1.21602247  0.11901789  0.55209952
   0.19958192  0.89189597  0.64883115
   0.13324827  0.76800081  0.38612502
   0.15022371  0.60053305  0.67549760
   0.81477461  0.49337673  0.83019284
   0.41187372  0.67201196  0.98705567
   0.71170075  1.08194333 -0.02596466
  -0.15650213  0.98913927  0.17230829
   0.85751421  0.74214735 -0.00442850
   0.14134806  0.92989404  0.33047380
   1.08569627  0.60287783  0.40872619
  -0.35759314  0.90611395  0.66728835
   0.90868737  0.84508946  0.54536716
   0.29974752  0.95392231  0.54759329
   1.34156293  0.73690173  0.88549907
  -0.07295927  0.87801286  0.08702728
   0.79720992  0.46441291  0.13139984
  -0.14616903  0.08884721  0.01263362
   0.77025905 -0.13409565  0.06101562
  -0.16819856 -0.20429058  0.20464524
   1.02458908  1.10664685  0.61733949
   0.21187885  0.33529366  0.33526557
   0.94146419  0.01707965  0.53316062
   0.06633492 -0.24603479  0.62184806
   0.89769304  0.35910224  1.01860086
  -0.23613082  0.55327742 -0.01853140
   0.30218622  0.43541984  0.43141364
   0.38272835  0.96097871 -0.10805002
   0.31168603  0.14644985  0.15596757
   0.31783987 -0.24960577  0.43767535
   0.24696499  0.74884534  0.62609906
   0.62932124  1.07583575  0.27470283
   0.76662780  0.88585716  0.49362233
