(Al)256  (P1) ~ (Pearson                
           1
    16.553834   -0.000013    0.000014
     0.000000   16.553834   -0.000012
     0.000000    0.000000   16.553834
   Ti   Cu
 243   7
Direct configuration=     1
   0.16215941  0.07345982  0.12345261
   0.20684902  0.32144296  0.17669094
   0.19332862  0.17636186  0.26978266
   0.28507040  0.42357259  0.38155832
   0.30536497  0.23103485  0.55788512
   0.21099179  0.30765512  0.79718683
   0.12127469  0.26997362  0.74530922
   0.27952354  0.50564174  0.77498656
   1.07586406  0.04256342  0.95708266
   0.35942475  0.11253496  0.97728965
   0.12533629  0.33921917  0.09869336
   0.32108528  0.66476504  0.08099621
   0.15738488  0.33829709  0.32616626
   0.14869810  0.51618157  0.36584577
   0.15666756  0.38800895  0.67067671
   0.30607167  0.49089528  0.51274527
   0.10722686  0.50485142  0.68557171
   0.32333448  0.57324744  0.87126077
   0.13150928  0.64143474  0.86710234
   0.16686801  0.39971092  0.04034874
   0.09854641  0.69143041  0.01618631
   0.20403885  0.83434518  0.07770590
   0.14792089  0.58397528  0.12746658
   0.28371682  0.73263269  0.36262775
   0.18184710  0.71919598  0.36997264
   0.25551497  0.65377583  0.55557052
   0.11001779  0.61041632  0.80952768
   0.33453678  0.98502611  0.87403270
   0.11982976  0.77329185  0.82617060
   0.43391065  0.73251986  1.03670171
   0.18639069  0.86497035  0.08280272
   0.23148957  0.81760699  0.26812333
   0.10775981  0.91405927  0.23666764
   0.19037043  0.99186099  0.41541870
   0.23027065  0.85683916  0.51926013
   0.29824345  0.94023208  0.42269763
   0.30401666  0.78841158  0.73966674
   0.17278808  1.08764381  0.78485956
   0.21605327  1.02342839  0.97424133
   0.39648018  0.93529896  0.79407975
   0.38397438 -0.06316843  0.09990394
   0.51162344  0.31764095  0.18633951
   0.23339339  0.01727535  0.24542318
   0.31976288  0.13679168  0.39550395
   0.09620708  0.07825717  0.39775740
   0.07612062  0.21446792  0.54885956
  -0.02234318  1.17360572  0.77217574
   0.15955166  0.21779593  0.99299539
  -0.00250594  1.05445916  0.79676532
   0.30287007  0.10183885  1.08362769
   0.51466282  0.23647050 -0.03233550
   0.54905974  0.40824407  0.10552287
   0.47608396  0.29137514  0.33739029
   0.54944617  0.61545811  0.46965805
   0.39822382  0.31355918  0.44046177
   0.49145461  0.38088124  0.58755014
   0.23752642  0.15191636  0.84107323
   0.42829850  0.37167162  0.80358393
   0.32575599  0.42462834  0.86684930
   0.51336931  0.38871241  0.92277485
   0.32190037  0.34639876  0.02083467
   0.49899952  0.33505999  0.40844802
   0.58019372  0.59643798  0.29665060
   0.46628364  0.38787483  0.41819622
   0.62166471  0.65498292  0.72631441
   0.39371652  0.49425878  0.51649665
   0.32938807  0.41186978  0.65073561
   0.36166391  0.43139519  0.89576452
   0.57169698  0.46812446  0.83866855
   0.35947826  0.36514126  0.06106982
   0.43608237  0.51920831  0.15094811
   0.31021780  0.50202620  0.26562479
   0.45767231  0.68961195  0.35048118
   0.32710354  0.59222897  0.42742534
   0.45317811  0.65997552  0.50365179
   0.34546803  0.67461570  0.70367826
   0.28426916  0.70452355  0.70092888
   0.26094311  0.66343974  0.92309053
   0.35233560  0.95483052  0.13734546
   0.49947401  1.12389485  0.09689379
   0.19475949  0.62554522  0.24831967
   0.45226483  1.00016295  0.33169836
   0.35900610  0.64405028  0.18225688
   0.50803492  0.80614224  0.58031570
   0.36481606  0.89228499  0.68569018
   0.61290024  0.70649602  0.92077116
   0.43904841  0.58333932  0.84489611
   0.53133977  0.79226556  0.99319501
   0.45529285  0.87732294  0.94211774
   0.23656064  0.25518697  0.60655559
   0.16809624  0.08984583  0.53436876
   0.35273515  0.06293938  0.55329329
   0.22243321  1.00506513  0.64343441
   0.41460877  0.20777530  0.68738607
   0.34405860  1.09846600  0.81137083
   0.53206450 -0.09414171  0.84455849
   0.67732083  0.40996879  0.02015248
   0.73729512  0.33594826  0.23305757
   0.43446321  0.18432884  0.35503986
   0.75909080  0.34902419  0.51394288
   0.52100975  0.24315962  0.52968973
   0.63737289  0.06818978  0.70326679
   0.36009934  0.34441412  0.66323290
   0.46446126  0.24023291  0.79506431
   0.39512008  0.23258458  0.96687041
   0.85403912  0.12828016  0.04414939
   0.47972112  0.54002984 -0.00516806
   0.61658385  0.48056122  0.22014083
   0.58817405  0.32746068  0.16268747
   0.70735538  0.51282570  0.46812407
   0.55044987  0.49253841  0.67446861
   0.73295890  0.61596449  0.58472535
   0.70771086  0.38740509  0.71781512
   0.71477035  0.57224779  0.82318801
   0.60212836  0.32119066  0.82300311
   0.76539544  0.47275082  1.20870141
   0.76729878  0.63402274  0.18389215
   0.82825282  0.63025913  0.39677942
   0.65192043  0.46332764  0.39774521
   0.65935647  0.65623063  0.42795635
   0.61838132  0.65352831  0.58724177
   0.53890950  0.65287196  0.75854154
   0.67113526  0.68876430  0.82634074
   0.64723864  0.57026241  1.12549167
   0.61727085  0.79995983  0.13635423
   0.63228793  0.66413176  0.09753598
   0.61816377  0.90027792  0.40821545
   0.50740868  0.60959919  0.18210016
   0.47454646  0.84263889  0.55108966
   0.62522299  0.81463719  0.44674046
   0.63079025  0.96989176  0.72200381
   0.87843155  0.88351788  0.72849161
   0.82384204  0.85820902  0.85517567
   0.59699119  0.06695581  0.97102119
   0.61451272  0.91765295  0.00342640
   0.48123683 -0.15244664  0.27229752
   0.47454089 -0.07061229  0.23812859
   0.55816027  0.15833887  0.21635599
   0.51431069  1.07176466  0.47371978
   0.44179290  0.08628209  0.56399065
   0.61426469  0.14253029  0.63762504
   0.57598747  0.01930954  0.84114198
   0.50994418  0.98308954  0.66430816
   0.53175669  0.03280499  0.11406060
   0.62707101  0.02577065  0.23376772
   0.92592949  0.32667111  0.35591277
   0.67394412  0.17004745  0.39269298
   0.71088226  0.15151565  0.28866364
   0.77489615  0.20917557  0.49277035
   0.79834902  0.24106135  0.72835101
   0.73742822  0.31268168  0.92237932
   0.04686435  0.16640142  0.87892459
   0.68839259  0.20574061  1.08118821
   0.93795252  0.38711915  0.22107953
   0.75160256  0.58057616  0.29917407
   0.85285407  0.49072564  0.34341175
   0.77448713  0.35611410  0.32127866
   0.67014887  0.41931475  0.56571600
   0.62046661  0.29192736  0.69527344
   0.77856134  0.38865501  0.79171242
   0.72632623  0.45876200  0.79706228
   0.84413750  0.61747812  0.80815232
   0.84254604  0.31403714  1.26057198
   0.86552902  0.53116327  0.09605241
   0.90665913  0.64662423  0.23974656
   0.98369834  0.81989901  0.25211309
   1.03544524  0.48125001  0.39043789
   0.93797505  0.61442648  0.46144450
   0.89468941  0.70515478  0.52335675
   1.09320979  0.75680657  0.58356871
   0.92374550  0.67028523  0.63289883
   0.97176678  0.75637132  0.81401303
   0.79172140  0.68074881  0.94640521
   0.95696112  0.78023018  0.95726498
   0.78158739  0.80039134  0.11332502
   0.74341015  0.93196364  0.20784915
   0.76220463  0.85751800  0.33099415
   0.81317689  0.93162837  0.43785213
   0.76408688  0.76607867  0.45323892
   0.72843216  0.93430552  0.57557374
   0.78753727  0.74763029  0.70187750
   1.02206148  0.92992413  0.82931703
   0.72048703  0.84417831  0.88578701
   0.77052159  0.91879558  1.02051696
   0.70156925  1.12827880 -0.00391194
   0.86187230  1.02501819  0.00311507
   0.68208075 -0.07488644  0.42636812
   0.79167937  0.13414439  0.36642310
   0.72565048  0.09209012  0.53749615
   0.81317885  0.13651027  0.64763213
   0.65179263  0.05643320  0.59965797
   0.61172433  0.17787493  0.94170760
   0.71503470  1.21627240  0.99085334
   0.66138627 -0.02169342  0.19367596
   0.92623846  0.25552459  0.16103093
   0.05295069  0.26676675  0.22217733
   0.87041511  0.21666706  0.26460176
   0.01807189  0.20019551  0.33666331
   0.83742787  0.48082554  0.51116540
   0.00740058  0.37415141  0.67483869
   0.75189457  0.19559296  0.81077556
   0.15312208  0.39055123  0.91145476
   0.92978645  0.36252241  1.00948346
   0.05015881  0.47377329  1.15785000
  -0.00924438  0.51304378  0.23939548
   0.26778525  0.46737261  0.21214493
   1.03573312  0.42867472  0.54527679
   0.09406724  0.65932826  0.39462188
   0.82120925  0.36686046  0.47062130
   0.13075497  0.65634357  0.66328171
   0.96488774  0.25282354  0.71505926
   0.00723828  0.55920916  0.77822389
   1.01943630  0.47290606  0.95901354
  -0.00860130  0.58510211  0.90188395
  -0.05320153  0.65983579  0.09279760
   0.05157384  0.75495170  0.18751657
   1.10575628  0.70633872  0.24163462
   1.01754407  0.43767850  0.53338669
   0.07120252  0.86708773  0.58338030
   0.04827475  0.66409402  0.52374439
   0.04133028  0.67577681  0.73955172
   0.87825056  0.44781249  0.88786620
   0.31308599  0.79074385  0.94140550
   0.88702007  0.91029738 -0.02827063
   0.02726939  1.01582776  0.15614274
   0.89534951  0.87853241  0.25922126
   0.05298576  0.95272008  0.41187983
   0.92408139  0.76195719  0.42425963
  -0.11041879  0.83562949  0.58424238
   0.99968304  0.91350664  0.69965656
   0.19476059  0.94337717  0.63572062
   1.20287760  0.83461516  0.86013222
   0.02794637  0.88408001  0.06794156
   0.91480444  0.81939524  0.13001545
  -0.00443540  0.13811590  0.08517674
   0.83732452  0.03170175  0.21500072
  -0.00993528  0.06405325  0.26187256
   0.94115280  1.10155965  0.50597354
   0.09521543  0.28913947  0.51839659
   0.89028108 -0.01519030  0.66567844
   0.07886131  0.10256764  0.65892178
   0.89799132  0.26310439  0.90045270
  -0.00199034  0.47052019  0.01225351
   0.41243163  0.48180555  0.39223700
   0.39694080  0.84648500  0.01416484
   0.37917434  0.10896071  0.25413473
   0.42604288 -0.09730404  0.40616516
   0.44587353  0.72780022  0.70061448
   0.64253215  1.04812126  0.38066642
   0.99374283  0.82323073  0.47424296
