(Al)256  (P1) ~ (Pearson                
           1
    16.553834   -0.000013    0.000014
     0.000000   16.553834   -0.000012
     0.000000    0.000000   16.553834
   Ti   Cu
 243   7
Direct configuration=     1
   0.07361695 -0.00244865 -0.05522587
   0.13393651  0.09966943  0.08511558
   0.01190088  0.07009965  0.23261022
   0.27169437  0.26666027  0.22451973
   0.46598104  0.17308864  0.70492834
   0.15560037  0.20070095  0.88998131
   0.17679470  0.27993505  0.75852860
   0.33412313  0.60683435  0.72807040
   1.11817802 -0.00544476  0.52922153
   0.28629939  0.16216086  1.05923418
   0.05146386  0.34347408  0.10265079
   0.19630031  0.70292714  0.01449304
   0.07319546  0.21997640  0.21620317
   0.09751960  0.34973793  0.25287528
   0.12925672  0.40933559  0.82113250
   0.40633619  0.21344458  0.26750759
  -0.11739769  0.57436138  0.70699974
   0.42160959  0.48020200  0.87242829
  -0.10471844  0.81009673  0.85267473
   0.00421784  0.37177866 -0.04808126
   0.04307496  0.78656098  0.11421581
  -0.02774148  0.89710285 -0.02737639
   0.04985268  0.61897688  0.12888316
   0.11256773  0.46700195  0.34592566
   0.14745469  0.48091969  0.17925254
   0.06221860  0.52199425  0.47719861
   0.03000584  0.66844134  0.96821940
   0.40506941  1.12729935  0.91189489
   0.03668595  0.83453306  0.79284243
   0.46900736  0.68142226  1.05673013
   0.11216741  0.80731639 -0.07982840
   0.24698258  0.81486552  0.29412331
   0.09444469  0.95686619  0.12088976
   0.12440011  1.10425086  0.33453842
   0.39251280  0.88024915  0.35079517
   0.19619201  0.96717543  0.23610863
   0.41387386  0.75590131  0.77357879
   0.12167558  1.16682868  0.67816906
   0.16947606  1.08607882  0.81875242
   0.36435481  1.04100132  0.77155238
   0.28060844 -0.14382347 -0.03927672
   0.50315916  0.48777716  0.16740498
   0.23964303  0.02477843 -0.05153041
   0.27554556  0.17561376  0.36783541
  -0.07543646 -0.04624769  0.33128432
   0.00200608  0.02491075  0.43718973
  -0.11257044  1.32386685  0.88004376
  -0.17581902  0.32884640  1.15688865
  -0.11802482  1.03828664  0.70136359
   0.45304362  0.15638837  1.10095976
   0.59259129  0.23989256 -0.15051478
   0.64172172  0.51336949  0.07186286
   0.66737116  0.26512439  0.24764619
   0.50373362  0.69281956  0.51340772
   0.52080060  0.29244197  0.19314288
   0.21053535  0.26014364  0.54445873
  -0.02972430  0.11549015  0.90946085
   0.30282470  0.17478504  0.82820991
   0.27421401  0.55682252  0.89811521
   0.60059479  0.39376505  0.95198693
   0.30889757  0.43119759  0.01541862
   0.41059118  0.19444066  0.52851338
   0.24845229  0.60111839  0.30132113
   0.34773011  0.30048241  0.41849860
   0.65403920  0.55933305  0.78480237
   0.21185742  0.40675012  0.50040778
   0.10157809  0.36951182  0.61046727
   0.26792923  0.40619678  0.86288991
   0.62864569  0.38957879  0.63887165
   0.28327393  0.28550907 -0.03341554
   0.36945888  0.55590435  0.07237301
   0.27283940  0.43587922  0.32209369
   0.42374297  0.76414703  0.29399493
   0.20017061  0.61822287  0.44770373
   0.41152112  0.65221848  0.40125320
   0.24291792  0.76521498  0.69233602
   0.33671050  0.54842345  0.55622685
   0.13134388  0.67951819  0.83939767
   0.31787229  1.00604967  0.06286684
   0.68405101  1.09563930 -0.05985927
   0.07798402  0.48446243 -0.01066537
   0.50758128  0.98791959  0.12242443
   0.24202127  0.58484384  0.14158256
   0.53465840  0.80766900  0.39323860
   0.27508022  0.91260650  0.73596140
   0.62333354  0.78489672  0.95890528
   0.54062819  0.54996507  0.69393096
   0.46601860  0.84378201  1.04396811
   0.48337002  0.81534701  0.89638087
  -0.00032992  0.30999435  0.72318718
   0.26375221 -0.02196921  0.36051755
   0.26533137  0.10897146  0.49894175
   0.01905703  0.86823783  0.50415994
   0.40826045  0.31668187  0.73935546
   0.30732338  1.19660818  0.66574778
   0.59117617 -0.26540499  0.82306706
   0.76689524  0.46211462 -0.02271646
   0.75896135  0.41995417  0.26881099
   0.34903853  0.07410227  0.24080137
   0.72911843  0.33075271  0.52543518
   0.41201707  0.10289665  0.38827537
   0.38632524  0.03392275  0.59437495
   0.28651690  0.37835188  0.66340699
   0.03356541  0.21533160  0.79669756
   0.16590279  0.27639575  1.10199508
   0.96908462  0.08379729  0.08127214
   0.52599711  0.54621626 -0.00577329
   0.45373291  0.38395125  0.30630658
   0.38906347  0.26604293  0.08542239
   0.56573074  0.40169864  0.47146630
   0.40132919  0.47215498  0.70439487
   0.64915295  0.67516927  0.58960117
   0.78834255  0.32445626  0.65792797
   0.65564057  0.63223583  0.90494110
   0.66043357  0.20411848  0.68117450
   0.77301518  0.43748098  1.42452955
   0.77391341  0.71178502  0.18668734
   0.94262026  0.46046679  0.54391453
   0.52102080  0.25421670  0.37152549
   0.67988755  0.51800040  0.52271879
   0.52898568  0.54417947  0.53661698
   0.47434777  0.70032247  0.65369256
   0.48675910  0.60112595  0.85441563
   0.63119393  0.44857428  1.30720713
   0.55317622  0.83798588  0.19045567
   0.62019496  0.66875474  0.11182603
   0.47010261  0.96197478  0.47204806
   0.37144458  0.56943110  0.23877335
   0.36565187  0.86826489  0.63798845
   0.51625362  0.52286156  0.36910607
   0.52540022  0.99098150  0.63789973
   0.88735237  0.76099205  0.68021970
   0.91717702  0.93142321  0.81382467
   0.53295324  0.06214091  0.83007559
   0.61875525  0.92342724 -0.10973423
   0.48764411 -0.03478127  0.27312975
   0.33098927 -0.29029192  0.14408683
   0.60698177  0.09617072  0.08268434
   0.54347482  1.12102387  0.23729772
   0.19178136  0.02433780  0.66472488
   0.69878502  0.11281963  0.77407120
   0.50237500 -0.09494337  0.76718277
   0.59547799  1.09829642  0.58906187
   0.51315640  0.00284950 -0.03618065
   0.21240097 -0.13988690  0.12419783
   0.89291134  0.13101653  0.49396815
   0.76534000  0.01744276  0.44667618
   0.64618415 -0.01907760  0.21476224
   0.72436374  0.15474391  0.50478354
   0.77698610  0.25335886  0.82046883
   0.48695065  0.39216574  1.03988934
   0.01534846  0.04134383  0.75820738
   0.75038241  0.06376691  1.11062867
   0.98389596  0.18484695  0.35353078
   0.64574592  0.59742656  0.41092680
   0.72509405  0.26837661  0.38187430
   0.85957341  0.27081601  0.42576899
   0.42657603  0.35809873  0.58670115
   0.53640735  0.38576214  0.77646964
   0.67375687  0.40720899  0.80061859
   0.76222443  0.48687130  0.64290553
   0.79949041  0.63292991  0.60350394
   0.88509554  0.30778013  1.57740407
   0.68617598  0.60908605  0.24543293
   0.81785424  0.57461761  0.30507858
   1.05349364  0.86118178  0.25983166
   1.00827876  0.31236003  0.45117746
   0.98263785  0.63442132  0.54146383
   0.80264620  0.71852559  0.34632743
   1.24943362  0.80514088  0.45585413
   0.94631364  0.79675798  0.40812701
   0.98028780  0.65825471  0.80149584
   0.73325006  0.68486664  0.71353526
   0.84350327  1.02023904  0.96876522
   0.80034345  0.87180217 -0.05314358
   0.36560543  0.89223599  0.15079646
   0.63609604  0.92438882  0.35055912
   0.80152090  0.87841846  0.45911266
   0.65555769  0.76917020  0.28677004
   0.69120192  0.95331454  0.53542328
   0.77140951  0.85305709  0.79714810
   1.15900926  0.89165927  0.77537954
   0.74859191  0.79611910  0.60740458
   0.64296567  0.93149788  1.05415676
   0.71280501  1.30435630 -0.03107493
   0.70781863  0.96367930 -0.27464330
   0.67545137 -0.23296500  0.45318092
   0.86177030  0.15751867  0.30545377
   0.77028001  0.06257866  0.62281941
   0.86285133  0.19231602  0.70143297
   0.61573505  0.08602499  0.41776050
   0.56543314  0.24930655  1.01416213
   0.67320781  1.38113997  1.13317619
   0.49569197 -0.35242952  0.22981175
   0.90635415  0.31478565  0.27899436
   0.00580814  0.24876680 -0.01307989
   0.67885703  0.22174560  0.11468130
  -0.08028877  0.20655042  0.16445342
   0.83612197  0.57123307  0.48117572
  -0.12816420  0.42434919  0.74350690
   0.44486132  0.30490949  0.91374518
   0.00142898  0.49134631  0.81201139
   0.95907424  0.46644282  1.10712188
  -0.01899360  0.46744385  1.23447510
  -0.06185192  0.43630323  0.39662037
   0.33881445  0.41708475  0.17977671
   1.04475865  0.49576202  0.65757978
   0.07440287  0.63993252  0.28331209
   0.58142095  0.24313084  0.50842167
   0.17814758  0.53807015  0.74904648
   1.00746870  0.21043982  0.60831483
   0.07054128  0.68043620  0.68287594
   0.90453178  0.50692800  0.93530039
  -0.14597336  0.69009799  0.93739736
  -0.08292296  0.62538837  0.08497534
  -0.05060770  0.74065998  0.23205871
   1.15598265  0.74313592  0.21835855
   1.07563528  0.14051701  0.46939000
   0.19301320  0.85853746  0.60535814
   0.09558320  0.71904064  0.41279183
   0.18135541  0.54872788  0.60439141
   0.80075859  0.55989696  0.82911269
   0.37908387  0.69556687  0.96105623
   0.80696577  1.05486503 -0.13937299
  -0.15390479  1.04021958  0.22112719
   0.89831862  0.76522392  0.07728857
   0.13595203  0.90054502  0.40482728
   0.97410247  0.61493535  0.37968677
  -0.42153637  0.82879252  0.62792728
   1.00238670  0.87229850  0.65228700
   0.29066886  0.96281121  0.53248358
   1.24735391  0.76650845  0.84704449
  -0.06958872  0.91956867  0.15308441
   0.80857441  0.51521853  0.15426685
  -0.14157693  0.18663887 -0.00007135
   0.72789883 -0.14134644  0.13955323
  -0.16548178 -0.13923062  0.25912921
   0.99162555  1.05125647  0.59626968
   0.12736150  0.30087270  0.40423410
   0.85515981 -0.07306035  0.58823185
   0.12551505 -0.26763602  0.54898940
   0.86856262  0.34405115  1.04282686
  -0.24975880  0.66169448  0.04038576
   0.40101500  0.44694520  0.44427673
   0.37043796  0.93320549 -0.12163479
   0.23595741  0.13312129  0.20163569
   0.39662468 -0.19732146  0.46812801
   0.32755973  0.71184086  0.56838280
   0.69267629  1.13744329  0.27500956
   0.85494833  0.73394611  0.51986625
Direct configuration=     2
   0.07143130 -0.00510812 -0.05526556
   0.13278860  0.10125095  0.08369798
   0.01311962  0.06658333  0.23162195
   0.27081629  0.26746565  0.22300875
   0.46625441  0.17538884  0.70569663
   0.15339569  0.20152061  0.89031418
   0.17780109  0.27974117  0.75769815
   0.33111936  0.60520054  0.72778509
   1.11782425 -0.00569667  0.53030458
   0.28611895  0.16078158  1.06208705
   0.05135651  0.34357236  0.10507160
   0.19810968  0.70193765  0.01724991
   0.07448449  0.21915488  0.21668740
   0.10017978  0.34662816  0.25280399
   0.12783927  0.40884683  0.82351335
   0.40651385  0.21345660  0.26788634
  -0.11898227  0.57475966  0.70717686
   0.41816218  0.48075960  0.87273789
  -0.10611054  0.81416571  0.85282407
   0.00463379  0.37100519 -0.04923280
   0.04384859  0.78794402  0.11284209
  -0.02668932  0.89536222 -0.02723977
   0.04986869  0.62031397  0.13163926
   0.11345546  0.46810885  0.34313093
   0.14725881  0.47974265  0.18045332
   0.06237636  0.52210869  0.47754305
   0.02985270  0.66536691  0.96893783
   0.40561145  1.12856537  0.91120869
   0.03724190  0.83605411  0.79183239
   0.47148846  0.67763119  1.05785637
   0.11129150  0.81031345 -0.08227618
   0.24281241  0.81392858  0.29449946
   0.09323633  0.95655778  0.11557652
   0.12333226  1.10401419  0.33536539
   0.39285116  0.88068163  0.35121542
   0.19630614  0.96777967  0.23432690
   0.41512751  0.75640825  0.77436695
   0.12218530  1.16526302  0.67852731
   0.16948790  1.08785943  0.81552391
   0.36264175  1.03999984  0.77002307
   0.28023677 -0.14292058 -0.03664901
   0.50220360  0.48917512  0.16845131
   0.23871375  0.02442002 -0.05046940
   0.27704131  0.17280047  0.36916164
  -0.07584751 -0.04969422  0.33227357
  -0.00217054  0.02312698  0.43640194
  -0.11211661  1.32662893  0.88088158
  -0.17564368  0.33032461  1.15968116
  -0.11730576  1.03645921  0.69916151
   0.45282214  0.15768129  1.10338069
   0.58836460  0.24025643 -0.15046364
   0.64233957  0.51280679  0.07319791
   0.67227719  0.26604514  0.24557527
   0.50561657  0.69635338  0.51146459
   0.52203517  0.29214263  0.19116007
   0.21070753  0.26132726  0.54251349
  -0.02753847  0.11289067  0.91370589
   0.30209241  0.17494718  0.82873446
   0.27464418  0.56303749  0.89768642
   0.59718085  0.39531688  0.95403134
   0.30948119  0.43458869  0.01675175
   0.40948844  0.19386002  0.52886541
   0.25404524  0.60178380  0.30247093
   0.34873934  0.30102217  0.41924084
   0.65538239  0.55773898  0.78654588
   0.21399881  0.40800291  0.50243080
   0.10060455  0.36959693  0.61247938
   0.26672366  0.40750015  0.86097933
   0.62534842  0.38927466  0.64020362
   0.27999210  0.28467635 -0.03471094
   0.37278575  0.55699098  0.07298412
   0.27253307  0.43615618  0.32144684
   0.42087816  0.76214766  0.29797531
   0.20046371  0.61824800  0.44220774
   0.41063037  0.65029665  0.39795139
   0.24299305  0.76549815  0.69333467
   0.33342422  0.54621610  0.55768590
   0.13135002  0.68366917  0.84149690
   0.31780819  1.00376710  0.06466941
   0.68474773  1.09601432 -0.05858806
   0.07883809  0.48307972 -0.00999403
   0.51000127  0.98757062  0.12229122
   0.24088363  0.58386518  0.14210751
   0.53434117  0.80800938  0.39491666
   0.27550243  0.90941590  0.73714156
   0.62484548  0.78704364  0.96018889
   0.53832605  0.55121395  0.69375817
   0.46762012  0.84050642  1.04438289
   0.48307803  0.81705665  0.89828316
   0.00012632  0.31114886  0.72382654
   0.26527905 -0.02107489  0.35931606
   0.26875992  0.11106964  0.49601605
   0.02229867  0.87401970  0.50542405
   0.40957540  0.31506961  0.74131277
   0.30572694  1.19472307  0.66608160
   0.59106532 -0.26402162  0.82300654
   0.76335935  0.46487788 -0.02234700
   0.76353716  0.41863099  0.26844316
   0.34905448  0.07287344  0.23921244
   0.73208670  0.33306690  0.52592988
   0.41009364  0.10249552  0.38546619
   0.38379134  0.02975079  0.59270894
   0.28758813  0.37773959  0.66380764
   0.03114797  0.21501293  0.79801442
   0.16408828  0.27431564  1.09920979
   0.96490246  0.08450445  0.08417855
   0.52447570  0.54219942 -0.00404358
   0.45124213  0.38684198  0.30896632
   0.38624661  0.26671464  0.08288916
   0.56526468  0.40218298  0.47219033
   0.40362281  0.47241041  0.70319882
   0.64875356  0.67783184  0.58960329
   0.78697365  0.32349324  0.65859660
   0.65264412  0.63189456  0.90265852
   0.66026523  0.20117646  0.68102294
   0.77155514  0.43881339  1.42465584
   0.77541522  0.71339670  0.18750325
   0.94606045  0.45876567  0.54360110
   0.52236375  0.25773140  0.37032238
   0.67794348  0.51628278  0.52244252
   0.53164515  0.54232802  0.54009433
   0.47379239  0.70148373  0.65169330
   0.48103508  0.60093016  0.85275736
   0.63231606  0.44911548  1.30471747
   0.55358428  0.84200206  0.19219990
   0.62106568  0.66962398  0.11027600
   0.47088108  0.95920730  0.47365246
   0.36905914  0.56971930  0.23846201
   0.36540618  0.86782631  0.63819019
   0.51518523  0.52421523  0.36444277
   0.52479758  0.98902292  0.63733678
   0.88485457  0.76118351  0.67887790
   0.91572488  0.93069191  0.81528433
   0.53218750  0.06164543  0.83206540
   0.61675048  0.92139323 -0.11113445
   0.48603638 -0.03459447  0.27282585
   0.33158127 -0.29165350  0.14445503
   0.60664422  0.09514810  0.08051339
   0.54314047  1.12208945  0.23909775
   0.19238930  0.02581211  0.66197403
   0.69880142  0.11329219  0.77062145
   0.50329503 -0.09763214  0.76674484
   0.59925250  1.10028819  0.58919726
   0.51345313  0.00333061 -0.03624577
   0.21192927 -0.14356159  0.12251878
   0.89026422  0.12644120  0.49848282
   0.76417391  0.01635722  0.44688198
   0.64519711 -0.02085870  0.21635715
   0.72350937  0.15052632  0.50360928
   0.77934450  0.25527369  0.82074282
   0.48864624  0.39221349  1.03697741
   0.01539997  0.04095017  0.76060120
   0.74830370  0.06465333  1.11205677
   0.98155190  0.18288559  0.35345026
   0.64473599  0.59704889  0.41250406
   0.72389164  0.27019198  0.38273928
   0.85819043  0.27223807  0.42625346
   0.42641965  0.35684245  0.58631524
   0.53655862  0.38670125  0.77728659
   0.67402399  0.40603258  0.80103358
   0.76072237  0.48677970  0.64493253
   0.79990893  0.63403496  0.60320475
   0.88780059  0.31055197  1.57793029
   0.68375885  0.60811132  0.24583521
   0.81861630  0.57400748  0.30320697
   1.05347218  0.86326264  0.25990715
   1.00684499  0.31419685  0.44882596
   0.98317296  0.63526753  0.54466345
   0.80253113  0.71948690  0.34819176
   1.24385309  0.80406554  0.45865164
   0.94690680  0.79384220  0.41145975
   0.98086112  0.65588827  0.80195060
   0.73551250  0.68580582  0.71540597
   0.84388609  1.01898705  0.97133963
   0.79754216  0.87285443 -0.05311245
   0.36579406  0.89287829  0.15170542
   0.64062870  0.92009259  0.35116740
   0.79904971  0.87985947  0.45705667
   0.65845387  0.77093074  0.28502479
   0.68892782  0.95823187  0.53580707
   0.77183903  0.85011763  0.79358559
   1.16351457  0.89258467  0.77432251
   0.74739418  0.79785654  0.61005599
   0.64315314  0.93148851  1.05201463
   0.71392143  1.30417653 -0.02647137
   0.70620378  0.96147861 -0.27559031
   0.67791685 -0.23384887  0.45391728
   0.86354970  0.15814100  0.30357059
   0.77446286  0.06449360  0.62240879
   0.86358012  0.19472652  0.69948039
   0.61791994  0.08361434  0.41921592
   0.56462343  0.24702182  1.01436228
   0.66934006  1.38309829  1.13421803
   0.49683369 -0.35174697  0.22889880
   0.91008491  0.31540349  0.27770473
   0.00980954  0.24746650 -0.01418796
   0.67956557  0.22264472  0.11629220
  -0.07899159  0.20405125  0.16379714
   0.83423499  0.57146040  0.48204530
  -0.12550962  0.42483814  0.73868106
   0.44769504  0.30725485  0.91479348
  -0.00059124  0.49081047  0.81011804
   0.95845563  0.46700513  1.10740435
  -0.02059967  0.46777052  1.23250913
  -0.06335255  0.43842443  0.39913033
   0.33770360  0.41731110  0.17820062
   1.04442651  0.49506648  0.65920174
   0.07433680  0.64181259  0.28184503
   0.58302914  0.24570257  0.51021412
   0.17681322  0.53830579  0.74976724
   1.00533971  0.20941950  0.60668475
   0.06982737  0.68347714  0.68161783
   0.90825223  0.50615249  0.93517811
  -0.14628399  0.69472809  0.93565962
  -0.08080449  0.62600425  0.08312724
  -0.05105495  0.74101283  0.23064474
   1.15752923  0.74067279  0.21681725
   1.07199170  0.13697496  0.46643147
   0.19448173  0.86048582  0.60486867
   0.09562854  0.71763803  0.41219056
   0.18266412  0.55095344  0.60497966
   0.79890413  0.55879253  0.82932674
   0.37690021  0.69575332  0.95915754
   0.80589973  1.05314254 -0.14077000
  -0.15357508  1.04084803  0.21941685
   0.90098330  0.76497112  0.07707760
   0.13316609  0.90080438  0.40544074
   0.97588289  0.61493580  0.38010371
  -0.41897834  0.83033338  0.63007844
   1.00152070  0.87012846  0.64793151
   0.29172080  0.96193398  0.53037426
   1.24678261  0.76626389  0.84769444
  -0.06883421  0.92000081  0.15405503
   0.81141085  0.51346979  0.15835582
  -0.14326759  0.18512644 -0.00173430
   0.72851638 -0.14354156  0.13831209
  -0.16623367 -0.13910282  0.26050080
   0.99447286  1.05067205  0.59576987
   0.13240200  0.30193509  0.40107050
   0.85598326 -0.07057331  0.58918912
   0.12623412 -0.26945644  0.55162576
   0.86417688  0.34347002  1.04365868
  -0.24888961  0.66020491  0.04286661
   0.39760866  0.44578515  0.44364792
   0.36942083  0.93344569 -0.12133864
   0.23678211  0.13326486  0.20464494
   0.39820320 -0.19571295  0.46867723
   0.32481453  0.71364775  0.56921885
   0.69176615  1.13709749  0.27424739
   0.85801035  0.73627170  0.51772352
Direct configuration=     3
   0.06949387 -0.00783700 -0.05540379
   0.13176962  0.10300145  0.08219363
   0.01424785  0.06271050  0.23073289
   0.26968574  0.26864284  0.22180795
   0.46674238  0.17735472  0.70654685
   0.15097425  0.20244013  0.89141196
   0.17930568  0.27984090  0.75669784
   0.32811387  0.60388193  0.72753152
   1.11814013 -0.00610148  0.53133261
   0.28587166  0.15909595  1.06467073
   0.05062493  0.34389221  0.10767614
   0.20000884  0.70102885  0.01987971
   0.07586211  0.21764337  0.21717103
   0.10292297  0.34377906  0.25289026
   0.12602231  0.40823861  0.82596956
   0.40672218  0.21381023  0.26835495
  -0.11995240  0.57523950  0.70703886
   0.41451821  0.48087801  0.87333193
  -0.10689743  0.81741278  0.85297138
   0.00537846  0.37066993 -0.05073263
   0.04497306  0.78938446  0.11123465
  -0.02597401  0.89352709 -0.02672741
   0.05040997  0.62148600  0.13432571
   0.11425427  0.46949123  0.34053230
   0.14707177  0.47827099  0.18160298
   0.06303824  0.52200233  0.47788698
   0.02948107  0.66225025  0.96966852
   0.40623773  1.12986088  0.91092653
   0.03767367  0.83719269  0.79071032
   0.47446924  0.67400612  1.05912256
   0.11039351  0.81366327 -0.08389384
   0.23885606  0.81291067  0.29493987
   0.09175370  0.95628809  0.11004394
   0.12262142  1.10341785  0.33597585
   0.39290993  0.88147910  0.35154640
   0.19646017  0.96849078  0.23239474
   0.41603913  0.75698004  0.77531172
   0.12293666  1.16365664  0.67851182
   0.16947433  1.08896902  0.81190786
   0.36110614  1.03914926  0.76845019
   0.27995448 -0.14214352 -0.03347818
   0.50138216  0.49051996  0.16967423
   0.23774051  0.02428618 -0.04960065
   0.27814234  0.17006170  0.36994953
  -0.07619363 -0.05297542  0.33333403
  -0.00672993  0.02095161  0.43531415
  -0.11169483  1.32947352  0.88163178
  -0.17564060  0.33181977  1.16255752
  -0.11698044  1.03451742  0.69736145
   0.45274823  0.15855088  1.10569793
   0.58422963  0.24052005 -0.15058650
   0.64305145  0.51226250  0.07486641
   0.67714164  0.26770040  0.24387400
   0.50751575  0.69989985  0.50956566
   0.52330038  0.29188526  0.18893619
   0.21088810  0.26232591  0.54070532
  -0.02545664  0.11024011  0.91779393
   0.30126980  0.17561070  0.82911230
   0.27485121  0.56950086  0.89731118
   0.59396981  0.39705791  0.95557684
   0.30994137  0.43799873  0.01799292
   0.40855635  0.19327364  0.52940992
   0.25929705  0.60277388  0.30361769
   0.34974575  0.30173208  0.42015535
   0.65641140  0.55605857  0.78805591
   0.21620280  0.40967877  0.50422556
   0.09982288  0.36939395  0.61434409
   0.26597864  0.40861434  0.85863940
   0.62189763  0.38884887  0.64131189
   0.27681507  0.28381799 -0.03605148
   0.37638817  0.55810125  0.07338895
   0.27224325  0.43627117  0.32103900
   0.41774593  0.76014498  0.30137532
   0.20091650  0.61796116  0.43698908
   0.40928536  0.64819049  0.39474525
   0.24298669  0.76480987  0.69428590
   0.33043040  0.54392517  0.55914799
   0.13140543  0.68738391  0.84345457
   0.31770961  1.00134584  0.06660841
   0.68519141  1.09651186 -0.05712994
   0.08004496  0.48199041 -0.00925652
   0.51190055  0.98738485  0.12225526
   0.23933305  0.58290997  0.14246383
   0.53417242  0.80841691  0.39641668
   0.27652844  0.90649409  0.73873561
   0.62666985  0.78889265  0.96215282
   0.53617470  0.55246478  0.69367718
   0.46924815  0.83742846  1.04464421
   0.48240315  0.81880990  0.90033214
   0.00038492  0.31290543  0.72451980
   0.26701449 -0.01994634  0.35833850
   0.27191165  0.11312236  0.49327324
   0.02523530  0.87955202  0.50694477
   0.41056737  0.31340539  0.74368960
   0.30411441  1.19269686  0.66629113
   0.59067783 -0.26250285  0.82194389
   0.75961538  0.46779883 -0.02203551
   0.76862404  0.41723744  0.26837935
   0.34969732  0.07105399  0.23749197
   0.73460481  0.33547940  0.52635892
   0.40849534  0.10179928  0.38305111
   0.38134999  0.02616007  0.59153262
   0.28804371  0.37728838  0.66412846
   0.02828212  0.21459108  0.79956718
   0.16288132  0.27235700  1.09604916
   0.96073124  0.08507927  0.08677926
   0.52284093  0.53819432 -0.00246929
   0.44873916  0.38970280  0.31130774
   0.38334695  0.26800428  0.08037905
   0.56483271  0.40247969  0.47276302
   0.40601913  0.47253337  0.70194189
   0.64770997  0.68022195  0.58947315
   0.78506164  0.32235630  0.65995420
   0.65013583  0.63142986  0.90131570
   0.66000206  0.19898176  0.68058233
   0.77003522  0.44002125  1.42459324
   0.77726006  0.71499797  0.18828267
   0.94902683  0.45710189  0.54375278
   0.52389645  0.26122782  0.36898401
   0.67601554  0.51432813  0.52251041
   0.53374192  0.54041019  0.54341151
   0.47293431  0.70256843  0.64982418
   0.47541899  0.60131506  0.85078860
   0.63314851  0.44945307  1.30233299
   0.55383569  0.84583618  0.19392902
   0.62168461  0.67084729  0.10872877
   0.47182976  0.95644542  0.47530205
   0.36710152  0.56984249  0.23835958
   0.36592214  0.86715650  0.63784333
   0.51392951  0.52557395  0.35983926
   0.52434999  0.98697153  0.63709130
   0.88249117  0.76125081  0.67767961
   0.91414758  0.93063475  0.81658923
   0.53173344  0.06132638  0.83361026
   0.61537782  0.91968522 -0.11284607
   0.48450827 -0.03425673  0.27280479
   0.33213215 -0.29266319  0.14484579
   0.60611060  0.09397646  0.07809795
   0.54277817  1.12330155  0.24114990
   0.19308547  0.02741834  0.65916627
   0.69866653  0.11378205  0.76744038
   0.50408139 -0.10034459  0.76615858
   0.60287255  1.10213981  0.58934593
   0.51347280  0.00373876 -0.03614463
   0.21161699 -0.14749400  0.12055697
   0.88755601  0.12195986  0.50320314
   0.76365853  0.01568531  0.44641901
   0.64450653 -0.02245722  0.21784864
   0.72265958  0.14686367  0.50257514
   0.78129990  0.25702295  0.82103795
   0.48996951  0.39252504  1.03462552
   0.01597170  0.04054110  0.76319867
   0.74666137  0.06555024  1.11342673
   0.97953470  0.18096814  0.35332409
   0.64394207  0.59709508  0.41384246
   0.72231033  0.27207096  0.38331036
   0.85708906  0.27389629  0.42681388
   0.42649008  0.35570445  0.58561721
   0.53649618  0.38783897  0.77810858
   0.67487947  0.40454796  0.80155441
   0.75916785  0.48654379  0.64707597
   0.80036894  0.63526312  0.60281246
   0.89096363  0.31321048  1.57840416
   0.68097506  0.60676804  0.24631879
   0.81966742  0.57329654  0.30157023
   1.05336271  0.86540859  0.25997457
   1.00546100  0.31621739  0.44669760
   0.98350310  0.63639341  0.54815328
   0.80238893  0.72051644  0.35030269
   1.23851178  0.80274657  0.46144865
   0.94757473  0.79070674  0.41425355
   0.98109958  0.65373927  0.80276451
   0.73782730  0.68683277  0.71814041
   0.84452639  1.01774308  0.97452116
   0.79439941  0.87382045 -0.05260268
   0.36612612  0.89331787  0.15309032
   0.64513488  0.91577407  0.35221641
   0.79690629  0.88085587  0.45445768
   0.66144150  0.77255238  0.28334779
   0.68570006  0.96279272  0.53658782
   0.77169318  0.84698720  0.78972180
   1.16754433  0.89376146  0.77368115
   0.74614202  0.80003201  0.61283790
   0.64341211  0.93147596  1.04972403
   0.71530085  1.30387813 -0.02192298
   0.70439786  0.95918322 -0.27667475
   0.68043035 -0.23463325  0.45488368
   0.86465599  0.15871125  0.30183344
   0.77841791  0.06682177  0.62199024
   0.86458348  0.19708395  0.69757123
   0.61978506  0.08131862  0.42034222
   0.56357287  0.24469058  1.01446178
   0.66533343  1.38498920  1.13501014
   0.49849546 -0.35103018  0.22808345
   0.91405514  0.31611615  0.27679732
   0.01389050  0.24536461 -0.01502818
   0.68054969  0.22344062  0.11778567
  -0.07751655  0.20156688  0.16274905
   0.83235180  0.57187393  0.48240974
  -0.12292948  0.42524836  0.73385209
   0.45028221  0.30955541  0.91553250
  -0.00240205  0.49033088  0.80853375
   0.95790738  0.46748494  1.10699752
  -0.02238990  0.46848550  1.23092145
  -0.06491795  0.44076433  0.40117042
   0.33660312  0.41749584  0.17641353
   1.04375203  0.49466726  0.66104688
   0.07437550  0.64343112  0.28032957
   0.58460993  0.24809004  0.51230642
   0.17558027  0.53849496  0.75067129
   1.00310479  0.20844464  0.60475971
   0.06927349  0.68650289  0.68045361
   0.91226673  0.50551481  0.93540780
  -0.14669407  0.69903924  0.93380361
  -0.07922394  0.62631155  0.08116505
  -0.05168322  0.74110506  0.22963069
   1.15922145  0.73803866  0.21502433
   1.06871747  0.13407399  0.46426470
   0.19552800  0.86269246  0.60408319
   0.09557298  0.71675580  0.41132515
   0.18404810  0.55327975  0.60531310
   0.79710455  0.55763615  0.82987710
   0.37430817  0.69577814  0.95707183
   0.80493454  1.05132754 -0.14287231
  -0.15341516  1.04115637  0.21768135
   0.90339262  0.76528406  0.07655402
   0.13013194  0.90126069  0.40563246
   0.97707085  0.61485282  0.38054813
  -0.41636389  0.83176334  0.63220435
   1.00114538  0.86811414  0.64371872
   0.29261729  0.96062222  0.52785945
   1.24684764  0.76572579  0.84850610
  -0.06796244  0.92050388  0.15463560
   0.81397807  0.51160051  0.16207401
  -0.14534780  0.18363008 -0.00341136
   0.72933712 -0.14581384  0.13687942
  -0.16739168 -0.13917240  0.26211738
   0.99722179  1.04989424  0.59525352
   0.13804748  0.30266507  0.39769383
   0.85693087 -0.06826718  0.59022272
   0.12692355 -0.27136397  0.55429502
   0.85992181  0.34293625  1.04388075
  -0.24791024  0.65856811  0.04523820
   0.39417976  0.44479447  0.44314100
   0.36858253  0.93375999 -0.12099327
   0.23691648  0.13336741  0.20757681
   0.39974896 -0.19419076  0.46963052
   0.32203217  0.71534033  0.57000096
   0.69108112  1.13617028  0.27374916
   0.86098906  0.73866301  0.51546878
Direct configuration=     4
   0.06784621 -0.01070042 -0.05569355
   0.13075367  0.10495102  0.08064732
   0.01527298  0.05853218  0.23002900
   0.26834517  0.27032368  0.22082363
   0.46735997  0.17899591  0.70749607
   0.14851453  0.20336612  0.89320407
   0.18110313  0.28006657  0.75552124
   0.32519267  0.60299116  0.72734874
   1.11899380 -0.00645215  0.53227013
   0.28557709  0.15711060  1.06700716
   0.04931583  0.34438773  0.11039122
   0.20188490  0.70030229  0.02232355
   0.07735212  0.21552301  0.21754900
   0.10582687  0.34139756  0.25322789
   0.12378804  0.40756161  0.82839293
   0.40690021  0.21441706  0.26879773
  -0.12029131  0.57584083  0.70661000
   0.41081562  0.48062039  0.87426598
  -0.10710499  0.81982335  0.85317739
   0.00638884  0.37061607 -0.05257784
   0.04652407  0.79085462  0.10933657
  -0.02552964  0.89166023 -0.02590992
   0.05134620  0.62241146  0.13693364
   0.11490986  0.47107628  0.33822497
   0.14685223  0.47671004  0.18270075
   0.06423274  0.52178657  0.47835913
   0.02898264  0.65919197  0.97033696
   0.40701836  1.13130250  0.91118248
   0.03800715  0.83799205  0.78926485
   0.47787828  0.67074769  1.06048771
   0.10941585  0.81726796 -0.08468267