unknown system                          
           1
    14.500001    0.000000    0.000000
     0.000000   14.500001    0.000000
     0.000000    0.000000   14.500000
   Ti   Cu
 249   1
Direct configuration=     1
   0.00000000  0.00000000  0.00000000
   0.00000000 -0.00000000  0.20000000
  -0.00000000  0.00000000  0.40000001
   0.00000000  0.00000000  0.60000002
   0.00000000  0.00000000  0.80000001
   0.00000000  0.20000000  0.00000000
   0.00000000  0.20000000  0.20000000
   0.00000000  0.20000000  0.40000001
   0.00000000  0.20000000  0.60000002
   0.00000000  0.20000000  0.80000001
   0.00000000  0.40000001  0.00000000
   0.00000000  0.40000001  0.20000000
   0.00000000  0.40000001  0.40000001
   0.00000000  0.40000001  0.60000002
   0.00000000  0.40000001  0.80000001
   0.00000000  0.60000002  0.00000000
   0.00000000  0.60000002  0.20000000
   0.00000000  0.60000002  0.40000001
   0.00000000  0.60000002  0.60000002
   0.00000000  0.60000002  0.80000001
   0.00000000  0.80000001  0.00000000
   0.00000000  0.80000001  0.20000000
   0.00000000  0.80000001  0.40000001
   0.00000000  0.80000001  0.60000002
   0.00000000  0.80000001  0.80000001
   0.20000000  0.00000000 -0.00000000
   0.20000000  0.00000000  0.20000000
   0.20000000  0.00000000  0.40000001
   0.20000000  0.00000000  0.60000002
   0.20000000  0.00000000  0.80000001
   0.20000000  0.20000000  0.00000000
   0.20000000  0.20000000  0.20000000
   0.20000000  0.20000000  0.40000001
   0.20000000  0.20000000  0.60000002
   0.20000000  0.20000000  0.80000001
   0.20000000  0.40000001  0.00000000
   0.20000000  0.40000001  0.20000000
   0.20000000  0.40000001  0.40000001
   0.20000000  0.40000001  0.60000002
   0.20000000  0.40000001  0.80000001
   0.20000000  0.60000002  0.00000000
   0.20000000  0.60000002  0.20000000
   0.20000000  0.60000002  0.40000001
   0.20000000  0.60000002  0.60000002
   0.20000000  0.60000002  0.80000001
   0.20000000  0.80000001  0.00000000
   0.20000000  0.80000001  0.20000000
   0.20000000  0.80000001  0.40000001
   0.20000000  0.80000001  0.60000002
   0.20000000  0.80000001  0.80000001
   0.40000001  0.00000000  0.00000000
   0.40000001  0.00000000  0.20000000
   0.40000001  0.00000000  0.40000001
   0.40000001  0.00000000  0.60000002
   0.40000001  0.00000000  0.80000001
   0.40000001  0.20000000  0.00000000
   0.40000001  0.20000000  0.20000000
   0.40000001  0.20000000  0.40000001
   0.40000001  0.20000000  0.60000002
   0.40000001  0.20000000  0.80000001
   0.40000001  0.40000001  0.00000000
   0.40000001  0.40000001  0.20000000
   0.40000001  0.40000001  0.40000001
   0.40000001  0.40000001  0.60000002
   0.40000001  0.40000001  0.80000001
   0.40000001  0.60000002  0.00000000
   0.40000001  0.60000002  0.20000000
   0.40000001  0.60000002  0.40000001
   0.40000001  0.60000002  0.60000002
   0.40000001  0.60000002  0.80000001
   0.40000001  0.80000001  0.00000000
   0.40000001  0.80000001  0.20000000
   0.40000001  0.80000001  0.40000001
   0.40000001  0.80000001  0.80000001
   0.60000002  0.00000000 -0.00000000
   0.60000002  0.00000000  0.20000000
   0.60000002  0.00000000  0.40000001
   0.60000002  0.00000000  0.60000002
   0.60000002  0.00000000  0.80000001
   0.60000002  0.20000000  0.00000000
   0.60000002  0.20000000  0.20000000
   0.60000002  0.20000000  0.40000001
   0.60000002  0.20000000  0.60000002
   0.60000002  0.20000000  0.80000001
   0.60000002  0.40000001  0.00000000
   0.60000002  0.40000001  0.20000000
   0.60000002  0.40000001  0.40000001
   0.60000002  0.40000001  0.60000002
   0.60000002  0.40000001  0.80000001
   0.60000002  0.60000002  0.00000000
   0.60000002  0.60000002  0.20000000
   0.60000002  0.60000002  0.40000001
   0.60000002  0.60000002  0.60000002
   0.60000002  0.60000002  0.80000001
   0.60000002  0.80000001  0.00000000
   0.60000002  0.80000001  0.20000000
   0.60000002  0.80000001  0.40000001
   0.60000002  0.80000001  0.60000002
   0.60000002  0.80000001  0.80000001
   0.80000001  0.00000000  0.00000000
   0.80000001  0.00000000  0.20000000
   0.80000001  0.00000000  0.40000001
   0.80000001  0.00000000  0.60000002
   0.80000001  0.00000000  0.80000001
   0.80000001  0.20000000  0.00000000
   0.80000001  0.20000000  0.20000000
   0.80000001  0.20000000  0.40000001
   0.80000001  0.20000000  0.60000002
   0.80000001  0.20000000  0.80000001
   0.80000001  0.40000001  0.00000000
   0.80000001  0.40000001  0.20000000
   0.80000001  0.40000001  0.40000001
   0.80000001  0.40000001  0.60000002
   0.80000001  0.40000001  0.80000001
   0.80000001  0.60000002  0.00000000
   0.80000001  0.60000002  0.20000000
   0.80000001  0.60000002  0.40000001
   0.80000001  0.60000002  0.60000002
   0.80000001  0.60000002  0.80000001
   0.80000001  0.80000001  0.00000000
   0.80000001  0.80000001  0.20000000
   0.80000001  0.80000001  0.40000001
   0.80000001  0.80000001  0.60000002
   0.80000001  0.80000001  0.80000001
   0.10000000  0.10000000  0.10000000
   0.10000000  0.10000000  0.30000001
   0.10000000  0.10000000  0.50000000
   0.10000000  0.10000000  0.69999999
   0.10000000  0.10000000  0.89999998
   0.10000000  0.30000001  0.10000000
   0.10000000  0.30000001  0.30000001
   0.10000000  0.30000001  0.50000000
   0.10000000  0.30000001  0.69999999
   0.10000000  0.30000001  0.89999998
   0.10000000  0.50000000  0.10000000
   0.10000000  0.50000000  0.30000001
   0.10000000  0.50000000  0.50000000
   0.10000000  0.50000000  0.69999999
   0.10000000  0.50000000  0.89999998
   0.10000000  0.69999999  0.10000000
   0.10000000  0.69999999  0.30000001
   0.10000000  0.69999999  0.50000000
   0.10000000  0.69999999  0.69999999
   0.10000000  0.69999999  0.89999998
   0.10000000  0.89999998  0.10000000
   0.10000000  0.89999998  0.30000001
   0.10000000  0.89999998  0.50000000
   0.10000000  0.89999998  0.69999999
   0.10000000  0.89999998  0.89999998
   0.30000001  0.10000000  0.10000000
   0.30000001  0.10000000  0.30000001
   0.30000001  0.10000000  0.50000000
   0.30000001  0.10000000  0.69999999
   0.30000001  0.10000000  0.89999998
   0.30000001  0.30000001  0.10000000
   0.30000001  0.30000001  0.30000001
   0.30000001  0.30000001  0.50000000
   0.30000001  0.30000001  0.69999999
   0.30000001  0.30000001  0.89999998
   0.30000001  0.50000000  0.10000000
   0.30000001  0.50000000  0.30000001
   0.30000001  0.50000000  0.50000000
   0.30000001  0.50000000  0.69999999
   0.30000001  0.50000000  0.89999998
   0.30000001  0.69999999  0.10000000
   0.30000001  0.69999999  0.30000001
   0.30000001  0.69999999  0.50000000
   0.30000001  0.69999999  0.69999999
   0.30000001  0.69999999  0.89999998
   0.30000001  0.89999998  0.10000000
   0.30000001  0.89999998  0.30000001
   0.30000001  0.89999998  0.50000000
   0.30000001  0.89999998  0.69999999
   0.30000001  0.89999998  0.89999998
   0.50000000  0.10000000  0.10000000
   0.50000000  0.10000000  0.30000001
   0.50000000  0.10000000  0.50000000
   0.50000000  0.10000000  0.69999999
   0.50000000  0.10000000  0.89999998
   0.50000000  0.30000001  0.10000000
   0.50000000  0.30000001  0.30000001
   0.50000000  0.30000001  0.50000000
   0.50000000  0.30000001  0.69999999
   0.50000000  0.30000001  0.89999998
   0.50000000  0.50000000  0.10000000
   0.50000000  0.50000000  0.30000001
   0.50000000  0.50000000  0.50000000
   0.50000000  0.50000000  0.69999999
   0.50000000  0.50000000  0.89999998
   0.50000000  0.69999999  0.10000000
   0.50000000  0.69999999  0.30000001
   0.50000000  0.69999999  0.50000000
   0.50000000  0.69999999  0.69999999
   0.50000000  0.69999999  0.89999998
   0.50000000  0.89999998  0.10000000
   0.50000000  0.89999998  0.30000001
   0.50000000  0.89999998  0.50000000
   0.50000000  0.89999998  0.69999999
   0.50000000  0.89999998  0.89999998
   0.69999999  0.10000000  0.10000000
   0.69999999  0.10000000  0.30000001
   0.69999999  0.10000000  0.50000000
   0.69999999  0.10000000  0.69999999
   0.69999999  0.10000000  0.89999998
   0.69999999  0.30000001  0.10000000
   0.69999999  0.30000001  0.30000001
   0.69999999  0.30000001  0.50000000
   0.69999999  0.30000001  0.69999999
   0.69999999  0.30000001  0.89999998
   0.69999999  0.50000000  0.10000000
   0.69999999  0.50000000  0.30000001
   0.69999999  0.50000000  0.50000000
   0.69999999  0.50000000  0.69999999
   0.69999999  0.50000000  0.89999998
   0.69999999  0.69999999  0.10000000
   0.69999999  0.69999999  0.30000001
   0.69999999  0.69999999  0.50000000
   0.69999999  0.69999999  0.69999999
   0.69999999  0.69999999  0.89999998
   0.69999999  0.89999998  0.10000000
   0.69999999  0.89999998  0.30000001
   0.69999999  0.89999998  0.50000000
   0.69999999  0.89999998  0.69999999
   0.69999999  0.89999998  0.89999998
   0.89999998  0.10000000  0.10000000
   0.89999998  0.10000000  0.30000001
   0.89999998  0.10000000  0.50000000
   0.89999998  0.10000000  0.69999999
   0.89999998  0.10000000  0.89999998
   0.89999998  0.30000001  0.10000000
   0.89999998  0.30000001  0.30000001
   0.89999998  0.30000001  0.50000000
   0.89999998  0.30000001  0.69999999
   0.89999998  0.30000001  0.89999998
   0.89999998  0.50000000  0.10000000
   0.89999998  0.50000000  0.30000001
   0.89999998  0.50000000  0.50000000
   0.89999998  0.50000000  0.69999999
   0.89999998  0.50000000  0.89999998
   0.89999998  0.69999999  0.10000000
   0.89999998  0.69999999  0.30000001
   0.89999998  0.69999999  0.50000000
   0.89999998  0.69999999  0.69999999
   0.89999998  0.69999999  0.89999998
   0.89999998  0.89999998  0.10000000
   0.89999998  0.89999998  0.30000001
   0.89999998  0.89999998  0.50000000
   0.89999998  0.89999998  0.69999999
   0.89999998  0.89999998  0.89999998
   0.40000001  0.80000001  0.60000002
